# Time       p0      p1      p2      p3      p4 
            0.335       1.0     2.0     3.0     4.0     5.0     
        