# Time    Cd   Cs   Cl 
            0.335  1.0  0    2.0     
        